# vtk DataFile Version 3.0
vtk output
ASCII
DATASET POLYDATA
POINTS 535 float
24.5089 45.4562 -17.4931 24.5089 42.7696 -17.927 23.7054 46.1272 -12.7186 
23.7054 43.6643 -11.561 22.0982 46.0713 -13.1165 22.9018 43.4966 -12.7546 
20.4911 43.5525 -12.3567 20.8929 46.0713 -13.1165 18.4821 43.6643 -11.561 
18.4821 46.239 -11.9228 16.0714 46.4068 -10.7292 14.4643 46.4068 -10.7292 
26.5179 42.7696 -17.927 25.3125 40.3068 -16.7694 24.9107 40.2508 -17.1673 
23.1027 41.5382 -17.3482 28.125 42.8815 -17.1312 27.3214 40.1949 -17.5651 
28.125 41.2014 -10.4034 22.9018 41.0337 -11.597 27.7232 43.7202 -11.1631 
25.7143 43.6643 -11.561 26.1161 41.0896 -11.1991 16.4732 43.7202 -11.1631 
14.4643 43.888 -9.96948 12.8571 43.8321 -10.3674 19.6875 42.7963 -8.396 
18.4821 44.2794 -7.18436 16.875 44.2235 -7.58223 14.8661 44.1676 -7.98011 
13.2589 44.1676 -7.98011 25.7143 37.7321 -16.4075 24.9107 37.7321 -16.4075 
26.9196 37.6202 -17.2033 22.9018 37.6761 -16.8054 28.125 38.5149 -10.8373 
22.5 39.6625 -12.0129 26.7188 39.5786 -12.6097 23.7054 39.6625 -12.0129 
24.1071 41.1455 -10.8013 29.3304 38.459 -11.2352 28.9286 41.2014 -10.4034 
20.0893 42.2931 -11.9769 18.0804 41.0896 -11.1991 14.8661 41.2574 -10.0055 
16.0714 39.8861 -10.4214 13.2589 41.2014 -10.4034 23.7054 40.2216 -8.03414 
18.0804 40.3894 -6.84052 13.058 40.4174 -6.64158 21.6964 40.2216 -8.03414 
20.0893 41.5369 -8.01613 16.4732 40.3335 -7.23839 15.2679 41.7047 -6.82251 
28.125 34.8778 -18.0351 26.1161 35.2133 -15.6478 24.9107 35.0455 -16.8414 
30.1339 35.8284 -11.2712 22.0982 35.7165 -12.0669 28.125 35.9402 -10.4754 
25.7143 36.9759 -12.4468 24.1071 35.7725 -11.6691 19.6875 38.3472 -12.0309 
18.0804 38.4031 -11.633 14.0625 38.459 -11.2352 16.0714 38.5149 -10.8373 
13.2589 38.3472 -12.0309 26.9196 37.591 -8.07017 26.1161 37.591 -8.07017 
24.5089 38.9063 -8.05216 22.5 38.9063 -8.05216 20.4911 38.9622 -7.65428 
18.4821 39.0182 -7.25641 16.4732 39.2978 -5.26703 14.8661 39.2978 -5.26703 
13.2589 39.13 -6.46065 28.3259 33.5904 -17.8541 25.7143 33.7861 -16.4616 
24.5089 33.7861 -16.4616 28.9286 33.6743 -17.2573 29.3304 34.9896 -17.2393 
29.7321 34.569 -10.8913 22.9018 33.1418 -11.7051 25.3125 32.9741 -12.8987 
28.5268 34.5131 -11.2892 23.7054 33.1978 -11.3072 27.7232 34.9604 -8.1062 
26.1161 35.0163 -7.70832 28.5268 32.3031 -17.6732 25.3125 30.0639 -14.9241 
29.7321 30.6231 -10.9454 24.1071 29.8402 -16.5156 23.5045 31.9104 -11.1263 
22.5 30.5671 -11.3432 25.1116 32.1341 -9.53478 28.5268 30.7349 -10.1496 
28.9286 31.0145 -8.16023 27.3214 31.0704 -7.76236 28.9286 32.3298 -8.14222 
27.5223 32.3577 -7.94328 25.3125 28.7486 -14.9421 23.7054 28.469 -16.9315 
28.3259 29.4475 -9.96868 27.3214 28.3571 -17.7273 23.3036 29.2518 -11.3612 
22.0982 28.0484 -10.5835 29.5313 29.4475 -9.96868 26.7188 29.112 -12.3559 
28.7277 29.6712 -8.37718 27.3214 28.4398 -7.79838 25.3125 26.1739 -14.5803 
24.1071 26.9859 -18.1431 27.9241 26.761 -10.4026 23.5045 26.761 -10.4026 
22.0982 25.4737 -10.2217 29.1295 26.7051 -10.8005 26.7188 26.5373 -11.9941 
27.3214 25.8092 -7.83441 25.1116 23.9626 -11.6322 23.3036 22.843 -10.2577 
27.7232 22.899 -9.85981 21.6964 22.7312 -11.0534 29.1295 24.2422 -9.64286 
27.3214 24.4379 -8.25029 28.125 20.2124 -10.2937 25.7143 20.0447 -11.4873 
24.9107 20.1006 -11.0895 21.8973 21.3879 -11.2704 28.7277 21.4998 -10.4746 
26.9196 20.5479 -7.90646 25.7143 20.5479 -7.90646 26.1161 17.47 -11.1255 
24.9107 18.5616 -12.699 27.7232 17.6377 -9.93186 22.5 18.7294 -11.5053 
20.4911 17.5259 -10.7276 20.4911 21.1922 -12.6629 27.3214 19.2326 -7.92447 
25.7143 19.2326 -7.92447 21.8973 19.2047 -8.12341 24.5089 21.8073 -8.28632 
24.308 19.2606 -7.72553 26.1161 14.8953 -10.7636 24.9107 14.8394 -11.1615 
22.5 14.8394 -11.1615 27.3214 15.063 -9.57001 20.4911 16.2106 -10.7456 
19.2857 17.6936 -9.53398 19.2857 17.3022 -12.3191 26.9196 15.2867 -7.97851 
25.7143 15.3985 -7.18276 20.4911 17.9173 -7.94248 20.0893 15.3985 -7.18276 
18.8839 17.9732 -7.54461 18.8839 15.3985 -7.18276 24.1071 15.4544 -6.78488 
25.3125 13.58 -10.7816 23.3036 13.524 -11.1795 22.9018 13.524 -11.1795 
20.8929 13.3563 -12.3731 19.2857 13.3563 -12.3731 25.3125 12.7679 -7.21878 
23.7054 12.8238 -6.8209 20.0893 12.8797 -6.42303 18.4821 12.8797 -6.42303 
22.0982 12.9916 -5.62728 22.5 15.5104 -6.387 23.3036 11.9851 -12.789 
21.6964 12.2647 -10.7997 21.2946 12.2647 -10.7997 19.2857 12.041 -12.3912 
23.5045 11.5924 -6.24211 16.0714 10.4169 -5.26543 16.0714 12.8238 -6.8209 
14.4643 12.7679 -7.21878 14.8661 10.361 -5.6633 22.0982 10.4728 -4.86755 
20.4911 10.6406 -3.67393 17.6786 10.7524 -2.87817 24.5089 36.2757 -8.08818 
25.3125 31.0145 -8.16023 25.9152 32.3577 -7.94328 25.7143 29.6992 -8.17824 
25.9152 27.0965 -8.01533 25.7143 23.1785 -7.87043 20.8929 35.8284 -11.2712 
18.0804 37.1437 -11.2532 16.4732 37.1996 -10.8553 20.4911 33.3096 -10.5115 
18.8839 33.3096 -10.5115 16.875 33.1418 -11.7051 20.0893 36.3876 -7.29243 
19.0848 35.212 -6.31575 20.0893 33.7569 -7.32845 18.8839 33.9247 -6.13483 
24.9107 23.1226 -8.26831 22.5 20.492 -8.30433 16.0714 36.779 -4.5073 
22.2991 34.9884 -7.90726 14.8661 36.7231 -4.90518 24.5089 33.701 -7.72633 
22.5 33.6451 -8.12421 16.875 33.9806 -5.73695 24.7098 29.6712 -8.37718 
14.8661 35.7725 -11.6691 34.5536 29.2251 -20.8923 33.3482 27.9657 -20.5124 
34.9554 29.5606 -18.505 33.9509 28.4969 -16.7326 35.1563 30.9598 -17.8902 
33.75 29.952 -15.7199 34.5536 27.601 -13.7665 32.5446 27.8806 -11.7771 
34.5536 30.1757 -14.1284 32.5446 30.3994 -12.5369 31.3393 27.9365 -11.3793 
31.3393 30.5671 -11.3432 34.5536 26.6504 -20.5304 34.5536 26.93 -18.541 
13.6607 14.6716 -12.3551 11.6518 13.4681 -11.5774 10.8482 14.8394 -11.1615 
8.6384 16.1267 -11.3424 10.0446 13.58 -10.7816 7.63393 14.9512 -10.3658 
7.23215 13.6359 -10.3838 13.2589 12.0969 -11.9933 11.25 12.0969 -11.9933 
21.6964 45.4562 -17.4931 21.6964 42.9374 -16.7334 20.4911 45.568 -16.6973 
20.0893 42.9374 -16.7334 18.8839 46.7155 -17.873 18.4821 42.8255 -17.5291 
20.0893 40.3068 -16.7694 18.683 41.5941 -16.9503 19.6875 37.6761 -16.8054 
22.5 35.0455 -16.8414 13.8616 36.948 -12.6457 14.8661 32.9741 -12.8987 
14.8661 32.6945 -14.8881 15.2679 30.0639 -14.9241 16.875 30.3435 -12.9347 
15.6696 30.2875 -13.3326 18.2813 31.9663 -10.7284 19.6875 30.7908 -9.75173 
16.4732 29.952 -15.7199 16.0714 27.3214 -15.7559 16.875 27.7129 -12.9708 
18.683 29.3916 -10.3666 19.6875 29.6433 -8.57612 20.0893 29.6992 -8.17824 
17.6786 25.4737 -10.2217 16.875 25.3059 -11.4153 21.2946 25.4737 -10.2217 
20.0893 27.0686 -8.21427 16.4732 22.843 -10.2577 14.8661 25.1941 -12.211 
14.4643 22.6753 -11.4513 21.2946 22.843 -10.2577 18.0804 22.9549 -9.46193 
22.0982 23.1226 -8.26831 20.4911 23.1785 -7.87043 18.0804 24.4379 -8.25029 
14.4643 20.2124 -10.2937 12.4554 21.5836 -9.87782 12.4554 22.7871 -10.6556 
16.0714 21.6396 -9.47995 19.2857 21.6955 -9.08207 20.4911 21.8632 -7.88844 
17.2768 23.1226 -8.26831 16.875 20.5479 -7.90646 15.2679 20.5479 -7.90646 
17.6786 21.8632 -7.88844 14.0625 17.6936 -9.53398 12.4554 19.0649 -9.1181 
16.875 19.2885 -7.52659 14.4643 19.2326 -7.92447 13.2589 17.9173 -7.94248 
15.8705 18.7573 -11.3064 17.2768 17.3022 -12.3191 10.4464 17.5259 -10.7276 
14.0625 16.7138 -7.16474 12.2545 16.6859 -7.36368 11.6518 17.8614 -8.34036 
11.25 16.602 -7.96049 16.0714 16.7138 -7.16474 12.8571 12.8238 -6.8209 
9.64286 15.2308 -8.37638 9.64286 13.9714 -7.99652 10.4464 12.8238 -6.8209 
18.4821 47.9749 -18.2528 17.2768 48.0868 -17.4571 17.2768 46.6596 -18.2708 
15.6696 48.1427 -17.0592 15.2679 46.7715 -17.4751 20.0893 48.0868 -17.4571 
13.058 47.079 -15.2868 13.2589 48.3664 -15.4677 14.4643 48.9255 -11.4889 
12.4554 49.0374 -10.6932 12.4554 46.4627 -10.3313 14.0625 48.0576 -8.32395 
12.8571 49.5406 -7.11231 10.8482 49.6525 -6.31655 10.0446 49.6525 -6.31655 
16.875 44.029 -18.3069 15.2679 42.8815 -17.1312 13.058 44.4484 -15.3228 
11.6518 45.371 -8.75785 10.2455 45.399 -8.55891 14.0625 46.7423 -8.34196 
12.8571 46.9659 -6.75045 10.8482 47.1337 -5.55683 9.24107 46.91 -7.14833 
16.875 41.4543 -17.945 14.6652 41.65 -16.5524 13.2589 40.5863 -14.78 
12.0536 44.2794 -7.18436 9.24107 44.3353 -6.78648 18.4821 37.5084 -17.999 
17.2768 39.0474 -16.3895 14.0625 39.1592 -15.5938 13.6607 39.271 -14.798 
18.2813 36.277 -17.4202 17.2768 35.0455 -16.8414 14.6652 36.5565 -15.4309 
17.4777 33.8141 -16.2626 17.6786 32.4708 -16.4796 18.2813 31.1276 -16.6965 
17.6786 27.3214 -15.7559 22.5 46.0445 -22.6475 20.4911 44.8411 -21.8697 
22.9018 47.3598 -22.6295 20.0893 47.4158 -22.2316 24.5089 47.5276 -21.4358 
23.7054 46.1564 -21.8517 19.2857 44.9529 -21.074 19.2857 47.5835 -21.0379 
24.1071 47.8631 -19.0486 21.6964 47.6954 -20.2422 26.317 46.6317 -18.4698 
26.1161 47.919 -18.6507 22.5 43.5817 -21.4899 20.8929 43.5817 -21.4899 
23.7054 42.3223 -21.11 22.5 41.0629 -20.7301 21.2946 41.1188 -20.3323 
19.6875 36.1931 -18.0171 23.1027 33.5904 -17.8541 21.2946 33.5065 -18.451 
23.1027 31.0157 -17.4923 21.2946 32.2472 -18.0711 23.1027 28.3851 -17.5283 
21.2946 29.6725 -17.7092 15.2679 27.3773 -15.358 22.5 26.9859 -18.1431 
20.4911 26.9859 -18.1431 18.8839 27.0418 -17.7453 17.2768 27.0418 -17.7453 
30.9375 46.9684 -25.4146 28.9286 47.248 -23.4252 33.3482 47.1362 -24.221 
27.3214 47.248 -23.4252 25.3125 47.3039 -23.0273 33.3482 47.4717 -21.8337 
30.9375 47.5276 -21.4358 30.1339 47.4158 -22.2316 27.7232 47.4717 -21.8337 
25.3125 47.5835 -21.0379 32.5446 47.6954 -20.2422 32.9464 45.2325 -19.0846 
30.9375 48.0309 -17.8549 31.5402 46.7435 -17.674 29.5313 46.7994 -17.2761 
28.125 47.8631 -19.0486 28.125 46.6037 -18.6687 29.7321 48.0868 -17.4571 
31.3393 44.3937 -25.0527 29.3304 44.7292 -22.6655 33.75 43.1343 -24.6729 
26.9196 44.7292 -22.6655 25.3125 44.7292 -22.6655 34.3527 43.4978 -22.0867 
34.1518 44.897 -21.4719 34.1518 45.1207 -19.8803 34.5536 42.6578 -18.7227 
31.942 44.2247 -16.9143 29.3304 42.7137 -18.3249 33.75 42.7137 -18.3249 
30.9375 43.3288 -13.9482 30.1339 44.5882 -14.3281 33.75 42.2104 -21.9058 
30.5357 42.2104 -21.9058 29.3304 42.2104 -21.9058 34.5536 42.2664 -21.5079 
[...]
POINT_DATA 535
SCALARS Label float
LOOKUP_TABLE default
11 11 1 1 1 1 1 1 1 
1 1 10 12 11 11 11 12 12 
1 1 1 1 1 7 8 10 1 
1 1 1 1 11 11 12 11 1 
3 1 3 1 1 1 3 3 7 
7 10 1 1 1 1 1 1 1 
12 1 11 1 7 3 1 3 7 
7 8 7 10 1 2 2 1 4 
1 4 4 1 12 12 12 12 12 
1 7 1 1 3 1 2 12 1 
1 11 1 1 3 1 1 2 1 
1 1 11 1 12 1 1 1 1 
1 1 1 12 1 1 1 1 1 
1 1 1 1 1 1 1 1 1 
1 1 1 1 1 1 1 1 1 
1 13 1 1 3 3 1 1 1 
1 1 1 1 13 1 1 3 3 
8 1 1 1 1 1 13 13 1 
1 1 1 1 3 13 1 1 13 
1 1 1 8 1 1 1 1 2 
4 2 2 2 2 7 7 7 7 
7 8 4 4 4 4 3 3 4 
4 4 4 4 4 4 8 7 12 
7 7 12 7 7 7 7 7 12 
12 7 7 13 7 7 13 7 7 
7 13 13 11 11 11 10 10 10 
11 10 11 11 10 10 8 10 8 
8 8 8 10 11 13 8 8 8 
8 8 8 8 8 13 13 8 8 
8 8 8 13 13 13 8 8 8 
8 8 8 8 13 13 8 8 8 
13 13 13 8 8 8 8 8 8 
13 13 8 10 10 10 10 10 11 
10 10 10 10 10 10 10 10 10 
10 10 10 10 10 10 10 10 10 
10 10 10 10 10 10 10 10 10 
10 10 10 10 10 10 11 11 11 
11 11 14 11 14 11 11 11 12 
14 11 14 12 14 11 11 11 11 
11 11 11 11 13 11 11 11 13 
12 12 12 12 12 12 12 12 12 
12 12 12 12 12 12 12 12 12 
12 12 12 12 12 12 12 12 12 
12 12 12 12 12 12 12 14 12 
12 12 14 12 12 12 12 12 12 
12 12 12 12 12 12 12 12 12 
12 12 12 12 12 12 12 12 12 
12 12 12 12 12 12 12 12 12 
12 12 12 12 12 12 12 12 12 
12 12 12 12 12 12 12 12 12 
12 12 12 12 12 12 12 12 12 
12 12 12 12 12 12 12 12 12 
13 13 13 13 13 13 13 13 13 
13 13 13 13 13 13 13 13 13 
13 13 14 13 13 13 13 14 13 
13 13 13 13 13 13 13 13 13 
13 13 13 13 13 13 13 13 13 
14 13 13 13 13 13 14 13 13 
13 13 13 13 14 13 13 13 13 
13 14 14 14 
